 Gaussian 09, Revision E.01,
 Gaussian 09:  ES64L-G09RevE.01 30-Nov-2015

 ----------------------------
 #M062X/6-311G** scrf=smd opt
 ----------------------------

 ---
 glu
 ---
 Symbolic Z-matrix:
 Charge = -1 Multiplicity = 1

 SCF Done:  E(RM062X) =  -475.816904699     A.U. after   14 cycles
 SCF Done:  E(RM062X) =  -475.855524976     A.U. after   13 cycles
 SCF Done:  E(RM062X) =  -475.862913712     A.U. after   13 cycles
 SCF Done:  E(RM062X) =  -475.849725376     A.U. after   13 cycles
 SCF Done:  E(RM062X) =  -475.864119777     A.U. after   10 cycles
 SCF Done:  E(RM062X) =  -475.862298422     A.U. after   12 cycles
 SCF Done:  E(RM062X) =  -475.864404422     A.U. after    8 cycles
 SCF Done:  E(RM062X) =  -475.865304748     A.U. after   13 cycles
 SCF Done:  E(RM062X) =  -475.866271336     A.U. after   12 cycles
 SCF Done:  E(RM062X) =  -475.867851400     A.U. after   15 cycles
 SCF Done:  E(RM062X) =  -475.868510797     A.U. after   12 cycles
 SCF Done:  E(RM062X) =  -475.869135237     A.U. after   14 cycles
 SCF Done:  E(RM062X) =  -475.869723419     A.U. after   12 cycles
 SCF Done:  E(RM062X) =  -475.870037408     A.U. after   12 cycles
 SCF Done:  E(RM062X) =  -475.870086620     A.U. after   12 cycles
 SCF Done:  E(RM062X) =  -475.870153596     A.U. after   11 cycles
 SCF Done:  E(RM062X) =  -475.870172054     A.U. after   11 cycles
 SCF Done:  E(RM062X) =  -475.870174449     A.U. after   10 cycles
 SCF Done:  E(RM062X) =  -475.870173442     A.U. after   10 cycles
 SCF Done:  E(RM062X) =  -475.870172553     A.U. after    9 cycles
 Optimization completed.
    -- Stationary point found.

                         Standard orientation:
 ---------------------------------------------------------------------
 Center     Atomic      Atomic             Coordinates (Angstroms)
 Number     Number       Type             X           Y           Z
 ---------------------------------------------------------------------
      1          7           0        1.759125    1.692871   -0.461486
      2          1           0        1.556470    1.496043   -1.439551
      3          6           0        1.496785    0.477802    0.311827
      4          1           0        1.504266    0.764195    1.373193
      5          6           0        0.191640   -0.245481   -0.002631
      6          1           0        0.193667   -0.531033   -1.059268
      7          1           0        0.149582   -1.170398    0.580254
      8          6           0       -1.038390    0.605375    0.297205
      9          1           0       -1.046708    0.906990    1.347431
     10          1           0       -1.011825    1.518078   -0.309037
     11          6           0       -2.351140   -0.113633   -0.029062
     12          8           0       -2.420346   -0.707783   -1.136351
     13          8           0       -3.274421   -0.050806    0.821309
     14          6           0        2.697033   -0.426642    0.171925
     15          8           0        2.644909   -1.632131    0.099501
     16          1           0        1.095598    2.407910   -0.181261
     17          1           0        3.668368    0.099347    0.147389
 ---------------------------------------------------------------------

 The electronic state is 1-A.
 Alpha  occ. eigenvalues --  -19.62646 -19.54465 -19.54457 -14.72164 -10.62681
 Alpha  occ. eigenvalues --  -10.61599 -10.56520 -10.52344 -10.51587  -1.18059
 Alpha  occ. eigenvalues --   -1.14116  -1.04347  -0.99649  -0.86378  -0.79458
 Alpha  occ. eigenvalues --   -0.71154  -0.63602  -0.58768  -0.56475  -0.55686
 Alpha  occ. eigenvalues --   -0.53201  -0.51662  -0.50166  -0.48891  -0.47975
 Alpha  occ. eigenvalues --   -0.46260  -0.45105  -0.42458  -0.39880  -0.38648
 Alpha  occ. eigenvalues --   -0.33812  -0.31906  -0.31533  -0.30680  -0.29812
 Alpha virt. eigenvalues --    0.01734   0.09018   0.11299   0.11865   0.12834
 Alpha virt. eigenvalues --    0.13038   0.15514   0.17407   0.18230   0.20132
 Alpha virt. eigenvalues --    0.24766   0.26611   0.28370   0.29785   0.31653

 Mulliken charges:
               1
     1  N   -0.551086
     2  H    0.249154
     3  C   -0.210119
     4  H    0.212060
     5  C   -0.285574
     6  H    0.145703
     7  H    0.155443
     8  C   -0.355292
     9  H    0.146949
    10  H    0.160404
    11  C    0.343447
    12  O   -0.635536
    13  O   -0.633137
    14  C    0.270867
    15  O   -0.405843
    16  H    0.256449
    17  H    0.136112
 Sum of Mulliken charges =  -1.00000

 Dipole moment (field-independent basis, Debye):
    X=             12.7253    Y=              5.8600    Z=              1.0798  Tot=             14.0513
 Quadrupole moment (field-independent basis, Debye-Ang):
   XX=           -108.8328   YY=            -61.8978   ZZ=            -58.6500
   XY=             -1.8301   XZ=              0.8628   YZ=             -3.3828

 Normal termination of Gaussian 09 at Mon Apr  3 11:15:57 2023.
