 Gaussian 09, Revision E.01,
 Gaussian 09:  ES64L-G09RevE.01 30-Nov-2015

 ----------------------------------------------------------------------
 #HF/6-31G* scrf=smd SCF=tight Test Pop=MK iop(6/33=2) iop(6/42=6) # io
 p(6/50=1)
 ----------------------------------------------------------------------

 ------------
 RESP charges
 ------------
 Symbolic Z-matrix:
 Charge = -1 Multiplicity = 1

                         Standard orientation:
 ---------------------------------------------------------------------
 Center     Atomic      Atomic             Coordinates (Angstroms)
 Number     Number       Type             X           Y           Z
 ---------------------------------------------------------------------
      1          7           0       -1.759125    1.692871    0.461486
      2          1           0       -1.556470    1.496043    1.439551
      3          6           0       -1.496785    0.477802   -0.311827
      4          1           0       -1.504266    0.764195   -1.373193
      5          6           0       -0.191640   -0.245481    0.002631
      6          1           0       -0.193667   -0.531033    1.059268
      7          1           0       -0.149582   -1.170398   -0.580254
      8          6           0        1.038390    0.605375   -0.297205
      9          1           0        1.046708    0.906990   -1.347431
     10          1           0        1.011825    1.518078    0.309037
     11          6           0        2.351140   -0.113633    0.029062
     12          8           0        2.420346   -0.707783    1.136351
     13          8           0        3.274421   -0.050806   -0.821309
     14          6           0       -2.697033   -0.426642   -0.171925
     15          8           0       -2.644909   -1.632131   -0.099501
     16          1           0       -1.095598    2.407910    0.181261
     17          1           0       -3.668368    0.099347   -0.147389
 ---------------------------------------------------------------------

 SCF Done:  E(RHF) =  -473.175730297     A.U. after   14 cycles

 The electronic state is 1-A.
 Alpha  occ. eigenvalues --  -20.57016 -20.48842 -20.48755 -15.54510 -11.33220
 Alpha  occ. eigenvalues --  -11.32656 -11.25640 -11.21311 -11.20702  -1.40073
 Alpha  occ. eigenvalues --   -1.36368  -1.25750  -1.18972  -1.03863  -0.95423
 Alpha  occ. eigenvalues --   -0.85605  -0.76112  -0.70750  -0.67480  -0.66574
 Alpha  occ. eigenvalues --   -0.63600  -0.62012  -0.59946  -0.59034  -0.57284
 Alpha  occ. eigenvalues --   -0.54478  -0.53896  -0.50461  -0.48239  -0.46859
 Alpha  occ. eigenvalues --   -0.42585  -0.40576  -0.40031  -0.39365  -0.38121
 Alpha virt. eigenvalues --    0.14997   0.23228   0.26260   0.27784   0.29473
 Alpha virt. eigenvalues --    0.30320   0.31465   0.33500   0.35076   0.37482
 Alpha virt. eigenvalues --    0.41368   0.43175   0.44890   0.47001   0.50336

 Mulliken charges:
               1
     1  N   -0.901841
     2  H    0.369942
     3  C   -0.095626
     4  H    0.223928
     5  C   -0.324607
     6  H    0.175050
     7  H    0.180197
     8  C   -0.428925
     9  H    0.173860
    10  H    0.187097
    11  C    0.769453
    12  O   -0.846069
    13  O   -0.850469
    14  C    0.383235
    15  O   -0.600455
    16  H    0.383727
    17  H    0.201504
 Sum of Mulliken charges =  -1.00000

 Dipole moment (field-independent basis, Debye):
    X=            -13.0980    Y=              6.3699    Z=             -1.1404  Tot=             14.6094
 Quadrupole moment (field-independent basis, Debye-Ang):
   XX=           -110.3065   YY=            -62.5269   ZZ=            -58.5749
   XY=              1.4102   XZ=              1.0407   YZ=              3.5033

 ESP charges:
               1
     1  N   -1.253210
     2  H    0.452827
     3  C    0.567283
     4  H   -0.008152
     5  C   -0.105186
     6  H    0.034437
     7  H    0.006777
     8  C   -0.213517
     9  H    0.040253
    10  H    0.035327
    11  C    0.979050
    12  O   -0.931452
    13  O   -0.938879
    14  C    0.458391
    15  O   -0.632782
    16  H    0.463278
    17  H    0.045555
 Sum of ESP charges =  -1.00000

 Normal termination of Gaussian 09 at Mon Apr  3 11:23:44 2023.
