 Gaussian 09, Revision E.01,
 Gaussian 09:  ES64L-G09RevE.01 30-Nov-2015

 ----------------------------------------------------------------------
 #HF/6-31G* scrf=smd SCF=tight Test Pop=MK iop(6/33=2) iop(6/42=6) # io
 p(6/50=1)
 ----------------------------------------------------------------------

 ------------
 RESP charges
 ------------
 Symbolic Z-matrix:
 Charge =  0 Multiplicity = 1

                         Standard orientation:
 ---------------------------------------------------------------------
 Center     Atomic      Atomic             Coordinates (Angstroms)
 Number     Number       Type             X           Y           Z
 ---------------------------------------------------------------------
      1          7           0        1.825236    1.751765    0.018690
      2          1           0        1.604259    1.869275   -0.967632
      3          6           0        1.532838    0.371749    0.399227
      4          1           0        1.555235    0.325959    1.496848
      5          6           0        0.206438   -0.197814   -0.095248
      6          1           0        0.196969   -0.179358   -1.190300
      7          1           0        0.127377   -1.242261    0.217395
      8          6           0       -0.984979    0.602093    0.444947
      9          1           0       -0.978092    0.581687    1.538873
     10          1           0       -0.943247    1.636595    0.106336
     11          6           0       -2.277757    0.017193   -0.050686
     12          8           0       -2.962773    0.500988   -0.918994
     13          8           0       -2.660362   -1.148478    0.502995
     14          6           0        2.697703   -0.488191   -0.031031
     15          8           0        2.594483   -1.605487   -0.478786
     16          1           0        1.202990    2.375364    0.522500
     17          1           0        3.687905   -0.017628    0.100424
     18          1           0       -2.046295   -1.418344    1.199749
 ---------------------------------------------------------------------

 SCF Done:  E(RHF) =  -473.645238598     A.U. after   15 cycles

 The electronic state is 1-A.
 Alpha  occ. eigenvalues --  -20.61533 -20.57358 -20.55945 -15.54900 -11.39439
 Alpha  occ. eigenvalues --  -11.33571 -11.26378 -11.23779 -11.23054  -1.46377
 Alpha  occ. eigenvalues --   -1.40447  -1.36564  -1.19555  -1.06637  -0.97312
 Alpha  occ. eigenvalues --   -0.88004  -0.82464  -0.76829  -0.71889  -0.68466
 Alpha  occ. eigenvalues --   -0.67825  -0.66901  -0.63581  -0.62674  -0.61132
 Alpha  occ. eigenvalues --   -0.57855  -0.57186  -0.54591  -0.51548  -0.50682
 Alpha  occ. eigenvalues --   -0.48976  -0.48098  -0.45506  -0.42883  -0.39811
 Alpha virt. eigenvalues --    0.14584   0.18239   0.22612   0.25795   0.27764
 Alpha virt. eigenvalues --    0.29391   0.30170   0.31712   0.33008   0.34216
 Alpha virt. eigenvalues --    0.37039   0.39605   0.41754   0.43030   0.46133

 Mulliken charges:
               1
     1  N   -0.900335
     2  H    0.373716
     3  C   -0.092993
     4  H    0.232668
     5  C   -0.342181
     6  H    0.200320
     7  H    0.204424
     8  C   -0.453519
     9  H    0.230069
    10  H    0.225315
    11  C    0.818325
    12  O   -0.656820
    13  O   -0.747660
    14  C    0.383650
    15  O   -0.596103
    16  H    0.386731
    17  H    0.206456
    18  H    0.527937
 Sum of Mulliken charges =  -0.00000

 Dipole moment (field-independent basis, Debye):
    X=              2.9601    Y=              2.4746    Z=              5.4246  Tot=              6.6568
 Quadrupole moment (field-independent basis, Debye-Ang):
   XX=            -80.5598   YY=            -58.0782   ZZ=            -49.5041
   XY=              6.4187   XZ=             -7.2073   YZ=             -3.6321

 ESP charges:
               1
     1  N   -1.262460
     2  H    0.454636
     3  C    0.585802
     4  H   -0.001810
     5  C   -0.066757
     6  H    0.067183
     7  H    0.009266
     8  C   -0.442363
     9  H    0.148409
    10  H    0.106343
    11  C    0.964171
    12  O   -0.699704
    13  O   -0.740065
    14  C    0.440594
    15  O   -0.624068
    16  H    0.477181
    17  H    0.053899
    18  H    0.529742
 Sum of ESP charges =  -0.00000

 Normal termination of Gaussian 09 at Mon Apr  3 11:29:58 2023.
