 Gaussian 09, Revision E.01,
 Gaussian 09:  ES64L-G09RevE.01 30-Nov-2015

 ----------------------------
 #M062X/6-311G** scrf=smd opt
 ----------------------------

 ---
 glh
 ---
 Symbolic Z-matrix:
 Charge =  0 Multiplicity = 1

 SCF Done:  E(RM062X) =  -476.275778772     A.U. after   14 cycles
 SCF Done:  E(RM062X) =  -476.318136436     A.U. after   13 cycles
 SCF Done:  E(RM062X) =  -476.328939868     A.U. after   13 cycles
 SCF Done:  E(RM062X) =  -476.325081495     A.U. after   14 cycles
 SCF Done:  E(RM062X) =  -476.329783186     A.U. after   10 cycles
 SCF Done:  E(RM062X) =  -476.330408140     A.U. after   12 cycles
 SCF Done:  E(RM062X) =  -476.331033699     A.U. after   13 cycles
 SCF Done:  E(RM062X) =  -476.332346174     A.U. after   12 cycles
 SCF Done:  E(RM062X) =  -476.334016616     A.U. after   14 cycles
 SCF Done:  E(RM062X) =  -476.334713616     A.U. after   13 cycles
 SCF Done:  E(RM062X) =  -476.333493376     A.U. after   14 cycles
 SCF Done:  E(RM062X) =  -476.335623000     A.U. after   12 cycles
 SCF Done:  E(RM062X) =  -476.335722675     A.U. after   11 cycles
 SCF Done:  E(RM062X) =  -476.335781951     A.U. after   11 cycles
 SCF Done:  E(RM062X) =  -476.335806323     A.U. after   10 cycles
 SCF Done:  E(RM062X) =  -476.335823652     A.U. after   10 cycles
 SCF Done:  E(RM062X) =  -476.335828142     A.U. after   10 cycles
 SCF Done:  E(RM062X) =  -476.335828978     A.U. after    9 cycles
 SCF Done:  E(RM062X) =  -476.335829072     A.U. after    7 cycles
 SCF Done:  E(RM062X) =  -476.335829175     A.U. after    7 cycles
 Optimization completed.
    -- Stationary point found.

                         Standard orientation:
 ---------------------------------------------------------------------
 Center     Atomic      Atomic             Coordinates (Angstroms)
 Number     Number       Type             X           Y           Z
 ---------------------------------------------------------------------
      1          7           0        1.825236    1.751765    0.018690
      2          1           0        1.604259    1.869275   -0.967632
      3          6           0        1.532838    0.371749    0.399227
      4          1           0        1.555235    0.325959    1.496848
      5          6           0        0.206438   -0.197814   -0.095248
      6          1           0        0.196969   -0.179358   -1.190300
      7          1           0        0.127377   -1.242261    0.217395
      8          6           0       -0.984979    0.602093    0.444947
      9          1           0       -0.978092    0.581687    1.538873
     10          1           0       -0.943247    1.636595    0.106336
     11          6           0       -2.277757    0.017193   -0.050686
     12          8           0       -2.962773    0.500988   -0.918994
     13          8           0       -2.660362   -1.148478    0.502995
     14          6           0        2.697703   -0.488191   -0.031031
     15          8           0        2.594483   -1.605487   -0.478786
     16          1           0        1.202990    2.375364    0.522500
     17          1           0        3.687905   -0.017628    0.100424
     18          1           0       -2.046295   -1.418344    1.199749
 ---------------------------------------------------------------------

 The electronic state is 1-A.
 Alpha  occ. eigenvalues --  -19.66312 -19.63010 -19.61334 -14.72579 -10.68153
 Alpha  occ. eigenvalues --  -10.63054 -10.57262 -10.54692 -10.54091  -1.23488
 Alpha  occ. eigenvalues --   -1.18446  -1.14595  -1.00236  -0.88988  -0.81217
 Alpha  occ. eigenvalues --   -0.73536  -0.69971  -0.64361  -0.60314  -0.57755
 Alpha  occ. eigenvalues --   -0.56671  -0.56001  -0.53720  -0.52517  -0.51225
 Alpha  occ. eigenvalues --   -0.48967  -0.47437  -0.45924  -0.43355  -0.42054
 Alpha  occ. eigenvalues --   -0.40745  -0.39705  -0.36286  -0.34120  -0.31599
 Alpha virt. eigenvalues --    0.01348   0.04968   0.07850   0.10353   0.11345
 Alpha virt. eigenvalues --    0.12610   0.14039   0.15581   0.17127   0.18292
 Alpha virt. eigenvalues --    0.19664   0.22775   0.25753   0.26881   0.29009

 Mulliken charges:
               1
     1  N   -0.549843
     2  H    0.252393
     3  C   -0.207697
     4  H    0.220458
     5  C   -0.283034
     6  H    0.179743
     7  H    0.172300
     8  C   -0.383814
     9  H    0.207678
    10  H    0.179966
    11  C    0.441324
    12  O   -0.451571
    13  O   -0.393251
    14  C    0.273403
    15  O   -0.401208
    16  H    0.260156
    17  H    0.140834
    18  H    0.342164
 Sum of Mulliken charges =  -0.00000

 Dipole moment (field-independent basis, Debye):
    X=              2.6714    Y=              2.1323    Z=              5.0417  Tot=              6.0911
 Quadrupole moment (field-independent basis, Debye-Ang):
   XX=            -79.0033   YY=            -57.0249   ZZ=            -49.5604
   XY=              5.8010   XZ=             -6.8855   YZ=             -3.4929

 Normal termination of Gaussian 09 at Mon Apr  3 11:25:13 2023.
