 Gaussian 09, Revision E.01,
 Gaussian 09:  ES64L-G09RevE.01 30-Nov-2015

 ----------------------------
 #M062X/6-311G** scrf=smd opt
 ----------------------------

 ---------------------
 remark line goes here
 ---------------------
 Symbolic Z-matrix:
 Charge = -3 Multiplicity = 1

 SCF Done:  E(RM062X) =  -909.716103987     A.U. after   15 cycles
 SCF Done:  E(RM062X) =  -909.787320717     A.U. after   14 cycles
 SCF Done:  E(RM062X) =  -909.833776735     A.U. after   15 cycles
 SCF Done:  E(RM062X) =  -909.847406924     A.U. after   12 cycles
 SCF Done:  E(RM062X) =  -909.856047006     A.U. after   13 cycles
 SCF Done:  E(RM062X) =  -909.861532356     A.U. after   11 cycles
 SCF Done:  E(RM062X) =  -909.862205692     A.U. after   12 cycles
 SCF Done:  E(RM062X) =  -909.863061297     A.U. after   11 cycles
 SCF Done:  E(RM062X) =  -909.863608308     A.U. after   11 cycles
 SCF Done:  E(RM062X) =  -909.863750325     A.U. after   11 cycles
 SCF Done:  E(RM062X) =  -909.863764413     A.U. after   11 cycles
 SCF Done:  E(RM062X) =  -909.863816227     A.U. after   10 cycles
 SCF Done:  E(RM062X) =  -909.863820383     A.U. after    9 cycles
 SCF Done:  E(RM062X) =  -909.863821224     A.U. after    8 cycles
 SCF Done:  E(RM062X) =  -909.863821690     A.U. after    8 cycles
 Optimization completed.
    -- Stationary point found.

                         Standard orientation:
 ---------------------------------------------------------------------
 Center     Atomic      Atomic             Coordinates (Angstroms)
 Number     Number       Type             X           Y           Z
 ---------------------------------------------------------------------
      1         15           0       -2.011391   -0.038630    0.064628
      2          8           0       -2.185902   -1.554782   -0.051506
      3          8           0       -2.685308    0.579679    1.285869
      4          8           0       -2.283739    0.702418   -1.246362
      5          8           0       -0.394213    0.204762    0.400860
      6          6           0        0.544890   -0.261528   -0.571430
      7          1           0        0.290741    0.177876   -1.545034
      8          1           0        0.486847   -1.352997   -0.654662
      9          6           0        1.930523    0.176042   -0.178253
     10          8           0        2.175707    1.461419   -0.063463
     11          6           0        2.872028   -0.772717    0.018134
     12          8           0        4.181295   -0.374376    0.338668
     13          1           0        4.112242    0.592575    0.356274
     14          1           0        2.733671   -1.841759   -0.049232
 ---------------------------------------------------------------------

 The electronic state is 1-A.
 Alpha  occ. eigenvalues --  -78.07163 -19.60034 -19.59027 -19.51882 -19.51791
 Alpha  occ. eigenvalues --  -19.51779 -19.51496 -10.55750 -10.54135 -10.52720
 Alpha  occ. eigenvalues --   -6.88075  -5.00019  -4.99830  -4.99810  -1.13672
 Alpha  occ. eigenvalues --   -1.12995  -1.06153  -1.04015  -0.99929  -0.99681
 Alpha  occ. eigenvalues --   -0.81121  -0.72747  -0.61560  -0.59003  -0.54059
 Alpha  occ. eigenvalues --   -0.52101  -0.50529  -0.48720  -0.45740  -0.44650
 Alpha  occ. eigenvalues --   -0.43863  -0.42568  -0.41251  -0.39942  -0.37340
 Alpha  occ. eigenvalues --   -0.35354  -0.35238  -0.34508  -0.34184  -0.31326
 Alpha  occ. eigenvalues --   -0.30208  -0.28261  -0.28113  -0.20395
 Alpha virt. eigenvalues --    0.11353   0.12273   0.12782   0.15140   0.16705
 Alpha virt. eigenvalues --    0.17826   0.18833   0.21669   0.23133   0.27715
 Alpha virt. eigenvalues --    0.28278   0.31195   0.32370   0.35681   0.38430

 Mulliken charges:
               1
     1  P    1.189803
     2  O   -0.923371
     3  O   -0.905112
     4  O   -0.922118
     5  O   -0.645451
     6  C   -0.091549
     7  H    0.118237
     8  H    0.131288
     9  C    0.074680
    10  O   -0.771194
    11  C   -0.150164
    12  O   -0.518364
    13  H    0.273036
    14  H    0.140279
 Sum of Mulliken charges =  -3.00000

 Dipole moment (field-independent basis, Debye):
    X=             10.1965    Y=             -3.6267    Z=             -1.6177  Tot=             10.9425
 Quadrupole moment (field-independent basis, Debye-Ang):
   XX=           -163.6228   YY=            -90.9067   ZZ=            -85.1568
   XY=             -4.6134   XZ=              0.9291   YZ=              1.1180

 Normal termination of Gaussian 09 at Tue Feb 28 14:44:58 2023.
