 Gaussian 09, Revision E.01,
 Gaussian 09:  ES64L-G09RevE.01 30-Nov-2015

 ----------------------------------------------------------------------
 #HF/6-31G* scrf=smd SCF=tight Test Pop=MK iop(6/33=2) iop(6/42=6) # io
 p(6/50=1)
 ----------------------------------------------------------------------

 ------------
 RESP charges
 ------------
 Symbolic Z-matrix:
 Charge = -3 Multiplicity = 1

                         Standard orientation:
 ---------------------------------------------------------------------
 Center     Atomic      Atomic             Coordinates (Angstroms)
 Number     Number       Type             X           Y           Z
 ---------------------------------------------------------------------
      1         15           0       -2.011391    0.038630   -0.064628
      2          8           0       -2.185902    1.554782    0.051506
      3          8           0       -2.685308   -0.579679   -1.285869
      4          8           0       -2.283739   -0.702418    1.246362
      5          8           0       -0.394213   -0.204762   -0.400860
      6          6           0        0.544890    0.261528    0.571430
      7          1           0        0.290741   -0.177876    1.545034
      8          1           0        0.486847    1.352997    0.654662
      9          6           0        1.930523   -0.176042    0.178253
     10          8           0        2.175707   -1.461419    0.063463
     11          6           0        2.872028    0.772717   -0.018134
     12          8           0        4.181295    0.374376   -0.338668
     13          1           0        4.112242   -0.592575   -0.356274
     14          1           0        2.733671    1.841759    0.049232
 ---------------------------------------------------------------------

 SCF Done:  E(RHF) =  -906.244002814     A.U. after   13 cycles

 The electronic state is 1-A.
 Alpha  occ. eigenvalues --  -80.01434 -20.54913 -20.53596 -20.45958 -20.45918
 Alpha  occ. eigenvalues --  -20.45900 -20.45227 -11.25268 -11.24053 -11.21914
 Alpha  occ. eigenvalues --   -7.53500  -5.43423  -5.43304  -5.43280  -1.35265
 Alpha  occ. eigenvalues --   -1.34560  -1.26975  -1.24893  -1.20469  -1.20251
 Alpha  occ. eigenvalues --   -0.97985  -0.87553  -0.73177  -0.70468  -0.65141
 Alpha  occ. eigenvalues --   -0.62405  -0.60683  -0.58665  -0.55691  -0.54434
 Alpha  occ. eigenvalues --   -0.53795  -0.52070  -0.50891  -0.49104  -0.46263
 Alpha  occ. eigenvalues --   -0.44202  -0.44035  -0.43210  -0.42949  -0.39871
 Alpha  occ. eigenvalues --   -0.38924  -0.36729  -0.36557  -0.25342
 Alpha virt. eigenvalues --    0.24549   0.28370   0.29547   0.31310   0.32537
 Alpha virt. eigenvalues --    0.35599   0.36264   0.39441   0.40917   0.44095
 Alpha virt. eigenvalues --    0.46303   0.50675   0.55551   0.58552   0.59936

 Mulliken charges:
               1
     1  P    1.459519
     2  O   -1.002358
     3  O   -0.981697
     4  O   -1.001025
     5  O   -0.801330
     6  C   -0.063461
     7  H    0.150270
     8  H    0.161683
     9  C    0.399088
    10  O   -1.008431
    11  C   -0.132599
    12  O   -0.841979
    13  H    0.469559
    14  H    0.192761
 Sum of Mulliken charges =  -3.00000

 Dipole moment (field-independent basis, Debye):
    X=              9.9334    Y=              3.9809    Z=              1.8328  Tot=             10.8572
 Quadrupole moment (field-independent basis, Debye-Ang):
   XX=           -164.5064   YY=            -89.9624   ZZ=            -83.4759
   XY=              5.1012   XZ=             -0.5506   YZ=              1.1841

 ESP charges:
               1
     1  P    1.374062
     2  O   -0.996791
     3  O   -1.022623
     4  O   -1.002175
     5  O   -0.532029
     6  C   -0.142114
     7  H    0.127552
     8  H    0.081624
     9  C    0.341739
    10  O   -0.894141
    11  C   -0.334914
    12  O   -0.641696
    13  H    0.436165
    14  H    0.205338
 Sum of ESP charges =  -3.00000

 Normal termination of Gaussian 09 at Tue Feb 28 15:58:47 2023.
