 Gaussian 09, Revision E.01,
 Gaussian 09:  ES64L-G09RevE.01 30-Nov-2015

 ----------------------------------------------------------------------
 #HF/6-31G* scrf=smd SCF=tight Test Pop=MK iop(6/33=2) iop(6/42=6) # io
 p(6/50=1)
 ----------------------------------------------------------------------

 -----------------
 calc RESP charges
 -----------------
 Symbolic Z-matrix:
 Charge = -1 Multiplicity = 1

                         Standard orientation:
 ---------------------------------------------------------------------
 Center     Atomic      Atomic             Coordinates (Angstroms)
 Number     Number       Type             X           Y           Z
 ---------------------------------------------------------------------
      1          8           0        2.286461    0.851499    0.428024
      2          6           0        1.456201    0.031324    0.009077
      3          8           0        1.389996   -0.376297   -1.172714
      4          6           0        0.476173   -0.572400    1.014246
      5          6           0       -0.975909   -0.742689    0.545123
      6          8           0       -1.040348   -1.478131   -0.664597
      7          6           0       -1.779173    0.557935    0.447227
      8          1           0        0.866689   -1.559398    1.253794
      9          1           0        0.493342    0.009267    1.927725
     10          1           0       -1.823343    1.001322    1.439055
     11          1           0       -2.797946    0.282110    0.186778
     12          6           0       -1.277427    1.599654   -0.552475
     13          1           0       -1.980285    2.425431   -0.611347
     14          1           0       -1.177793    1.181585   -1.548628
     15          1           0       -0.317849    2.013489   -0.261407
     16          1           0       -1.474329   -1.353742    1.289191
     17          1           0       -0.276548   -1.219572   -1.180058
 ---------------------------------------------------------------------

 SCF Done:  E(RHF) =  -419.313716794     A.U. after   13 cycles

 The electronic state is 1-A.
 Alpha  occ. eigenvalues --  -20.54074 -20.49529 -20.49245 -11.32974 -11.26631
 Alpha  occ. eigenvalues --  -11.20529 -11.20506 -11.19988  -1.38170  -1.34875
 Alpha  occ. eigenvalues --   -1.26939  -1.05191  -0.98490  -0.88808  -0.78434
 Alpha  occ. eigenvalues --   -0.71639  -0.66743  -0.63654  -0.62455  -0.59829
 Alpha  occ. eigenvalues --   -0.59067  -0.57964  -0.56233  -0.53075  -0.51404
 Alpha  occ. eigenvalues --   -0.48686  -0.47720  -0.46006  -0.41612  -0.40714
 Alpha  occ. eigenvalues --   -0.40122  -0.38833
 Alpha virt. eigenvalues --    0.22691   0.25634   0.29000   0.30448   0.31863
 Alpha virt. eigenvalues --    0.32224   0.33721   0.35409   0.36678   0.38279
 Alpha virt. eigenvalues --    0.40547   0.42101   0.44702   0.47812   0.52024

 Mulliken charges:
               1
     1  O   -0.830891
     2  C    0.779718
     3  O   -0.833421
     4  C   -0.464100
     5  C    0.164457
     6  O   -0.868842
     7  C   -0.317576
     8  H    0.199947
     9  H    0.185556
    10  H    0.164435
    11  H    0.165350
    12  C   -0.522086
    13  H    0.170329
    14  H    0.167182
    15  H    0.167497
    16  H    0.173953
    17  H    0.498490
 Sum of Mulliken charges =  -1.00000

 Dipole moment (field-independent basis, Debye):
    X=             -7.8467    Y=             -0.1726    Z=              3.8302  Tot=              8.7333
 Quadrupole moment (field-independent basis, Debye-Ang):
   XX=            -72.9777   YY=            -56.9698   ZZ=            -54.2151
   XY=             -9.8672   XZ=             -0.0802   YZ=             -4.6984

 ESP charges:
               1
     1  O   -0.909893
     2  C    1.026537
     3  O   -0.934835
     4  C   -0.531117
     5  C    0.603383
     6  O   -0.895481
     7  C   -0.028665
     8  H    0.127204
     9  H    0.103518
    10  H   -0.006751
    11  H    0.004851
    12  C   -0.109848
    13  H    0.037841
    14  H    0.014986
    15  H    0.020023
    16  H   -0.035360
    17  H    0.513606
 Sum of ESP charges =  -1.00000

 Normal termination of Gaussian 09 at Tue Dec 13 19:22:24 2022.
