 Gaussian 09, Revision E.01,
 Gaussian 09:  ES64L-G09RevE.01 30-Nov-2015

 ----------------------------------
 #HF/6-31G* scrf=smd opt geom=check
 ----------------------------------

 ---------------------
 remark line goes here
 ---------------------
 Structure from the checkpoint file:  "nah2.chk"
 Charge = -2 Multiplicity = 1

 SCF Done:  E(RHF) =  -2922.18663630     A.U. after   14 cycles
 SCF Done:  E(RHF) =  -2922.18682185     A.U. after   11 cycles
 SCF Done:  E(RHF) =  -2922.18694672     A.U. after   11 cycles
 SCF Done:  E(RHF) =  -2922.18646850     A.U. after   12 cycles
 SCF Done:  E(RHF) =  -2922.18720792     A.U. after   11 cycles
 SCF Done:  E(RHF) =  -2922.18736813     A.U. after   11 cycles
 SCF Done:  E(RHF) =  -2922.18745168     A.U. after   11 cycles
 SCF Done:  E(RHF) =  -2922.18748963     A.U. after   11 cycles
 SCF Done:  E(RHF) =  -2922.18755520     A.U. after   10 cycles
 SCF Done:  E(RHF) =  -2922.18759568     A.U. after   11 cycles
 SCF Done:  E(RHF) =  -2922.18769847     A.U. after   10 cycles
 SCF Done:  E(RHF) =  -2922.18770847     A.U. after   10 cycles
 SCF Done:  E(RHF) =  -2922.18771342     A.U. after    9 cycles
 SCF Done:  E(RHF) =  -2922.18771439     A.U. after    8 cycles
 SCF Done:  E(RHF) =  -2922.18771501     A.U. after    8 cycles
 SCF Done:  E(RHF) =  -2922.18771551     A.U. after    7 cycles
 SCF Done:  E(RHF) =  -2922.18771613     A.U. after    8 cycles
 SCF Done:  E(RHF) =  -2922.18771642     A.U. after    7 cycles
 SCF Done:  E(RHF) =  -2922.18771663     A.U. after    7 cycles
 SCF Done:  E(RHF) =  -2922.18771667     A.U. after    6 cycles
 Optimization completed.
    -- Stationary point found.

                         Standard orientation:
 ---------------------------------------------------------------------
 Center     Atomic      Atomic             Coordinates (Angstroms)
 Number     Number       Type             X           Y           Z
 ---------------------------------------------------------------------
      1          6           0       -6.478506    2.983732   -0.991747
      2          1           0       -6.198319    4.018929   -0.991608
      3          6           0       -7.526117    2.537226   -1.657372
      4          1           0       -8.115207    3.239338   -2.219349
      5          6           0       -7.944386    1.090916   -1.656642
      6          1           0       -8.913869    0.977127   -1.174852
      7          1           0       -8.085930    0.744139   -2.676933
      8          6           0       -6.898110    0.245702   -0.957501
      9          6           0       -7.116456   -1.217363   -1.000712
     10          8           0       -8.162568   -1.654947   -1.470640
     11          7           0       -6.195407   -2.063317   -0.520130
     12          1           0       -5.270082   -1.812382   -0.247106
     13          1           0       -6.384299   -3.037157   -0.621033
     14          6           0       -5.867241    0.794428   -0.308923
     15          1           0       -5.135341    0.195259    0.190339
     16          7           0       -5.658491    2.152343   -0.209885
     17          6           0       -4.394441    2.657589    0.246626
     18          1           0       -4.453202    3.735749    0.192822
     19          6           0       -3.971334    2.264424    1.661385
     20          1           0       -4.182735    1.219955    1.842261
     21          8           0       -4.561634    3.060258    2.653472
     22          1           0       -5.451581    2.758653    2.797101
     23          6           0       -2.454479    2.450663    1.612208
     24          1           0       -1.950989    1.781380    2.291752
     25          8           0       -2.043392    3.744678    1.987310
     26          1           0       -2.423932    4.394260    1.405793
     27          6           0       -2.118806    2.135034    0.142608
     28          1           0       -1.448802    2.895602   -0.239146
     29          8           0       -3.346376    2.190392   -0.574278
     30          6           0       -1.474154    0.788864   -0.095729
     31          1           0       -1.335423    0.637019   -1.156495
     32          1           0       -0.511365    0.751233    0.397902
     33          8           0       -2.323005   -0.218535    0.428635
     34         15           0       -2.138780   -1.771023    0.091150
     35          8           0       -1.757995   -1.963950   -1.327684
     36          8           0       -3.329894   -2.459113    0.642450
     37          8           0       -0.853000   -2.088086    1.032586
     38         15           0        0.165779   -3.347479    0.988758
     39          8           0        0.956746   -3.269912    2.239749
     40          8           0       -0.570627   -4.583350    0.639221
     41          8           0        1.091066   -2.997949   -0.274462
     42          6           0        1.839383   -1.796288   -0.347725
     43          1           0        1.957021   -1.350317    0.630365
     44          1           0        1.316352   -1.100147   -0.988341
     45          6           0        3.194321   -2.122282   -0.949616
     46          1           0        3.055804   -2.661839   -1.876672
     47          8           0        3.849328   -0.885192   -1.227554
     48          6           0        4.124158   -2.899146   -0.012963
     49          1           0        3.579183   -3.443163    0.741202
     50          8           0        4.918037   -3.853779   -0.681904
     51          1           0        5.259627   -3.500843   -1.497298
     52          6           0        4.981751   -1.786568    0.590465
     53          1           0        4.447786   -1.322123    1.407259
     54          8           0        6.220673   -2.206175    1.084806
     55          1           0        6.558705   -2.880763    0.503566
     56          6           0        5.090775   -0.804797   -0.575211
     57          1           0        5.889854   -1.098233   -1.239329
     58          7           0        5.345611    0.564004   -0.204975
     59          6           0        4.558028    1.359937    0.586272
     60          1           0        3.660035    0.981732    1.027482
     61          7           0        4.997820    2.557208    0.723885
     62          6           0        6.161734    2.578953   -0.027664
     63          6           0        7.107650    3.575232   -0.288883
     64          7           0        6.996801    4.829087    0.185547
     65          1           0        6.386526    4.989782    0.957256
     66          1           0        7.810728    5.404264    0.144890
     67          7           0        8.141525    3.275376   -1.074712
     68          6           0        8.223932    2.048543   -1.574057
     69          1           0        9.076537    1.865348   -2.200887
     70          7           0        7.406476    1.035004   -1.401062
     71          6           0        6.382087    1.353878   -0.612135
 ---------------------------------------------------------------------

 The electronic state is 1-A.
 Alpha  occ. eigenvalues --  -80.07296 -80.07268 -20.58253 -20.57932 -20.57837
 Alpha  occ. eigenvalues --  -20.57755 -20.57419 -20.57251 -20.57164 -20.56977
 Alpha  occ. eigenvalues --  -20.56770 -20.52183 -20.50118 -20.50064 -20.50055
 Alpha  occ. eigenvalues --  -20.50027 -15.62733 -15.59813 -15.57526 -15.56556
 Alpha  occ. eigenvalues --  -15.56519 -15.56100 -15.55385 -11.35145 -11.33622
 Alpha  occ. eigenvalues --  -11.32955 -11.31723 -11.31453 -11.30975 -11.30902
 Alpha  occ. eigenvalues --  -11.28488 -11.28451 -11.28376 -11.28315 -11.28167
 Alpha  occ. eigenvalues --  -11.28044 -11.27965 -11.27866 -11.27815 -11.26013
 Alpha  occ. eigenvalues --  -11.24799 -11.22372 -11.22304 -11.21367  -7.59537
 Alpha  occ. eigenvalues --   -7.59501  -5.49428  -5.49405  -5.49381  -5.49328
 Alpha  occ. eigenvalues --   -5.49300  -5.49269  -1.43819  -1.42755  -1.41767
 Alpha  occ. eigenvalues --   -1.40248  -1.38785  -1.38252  -1.37948  -1.37368
 Alpha  occ. eigenvalues --   -1.36365  -1.36275  -1.35903  -1.31102  -1.30865
 Alpha  occ. eigenvalues --   -1.29049  -1.28137  -1.26267  -1.26206  -1.25284
 Alpha  occ. eigenvalues --   -1.20129  -1.20084  -1.16059  -1.09220  -1.05460
 Alpha  occ. eigenvalues --   -1.04919  -1.04687  -1.04584  -1.02598  -1.02080
 Alpha  occ. eigenvalues --   -0.93802  -0.93645  -0.89506  -0.89318  -0.88075
 Alpha  occ. eigenvalues --   -0.87878  -0.86188  -0.83736  -0.82831  -0.81674
 Alpha  occ. eigenvalues --   -0.81321  -0.79732  -0.79577  -0.77128  -0.75143
 Alpha  occ. eigenvalues --   -0.74873  -0.74265  -0.73357  -0.72250  -0.71026
 Alpha  occ. eigenvalues --   -0.70722  -0.70610  -0.69229  -0.68478  -0.68418
 Alpha  occ. eigenvalues --   -0.68032  -0.67904  -0.67149  -0.66688  -0.65923
 Alpha  occ. eigenvalues --   -0.65504  -0.64926  -0.64287  -0.63360  -0.63238
 Alpha  occ. eigenvalues --   -0.62913  -0.62788  -0.62219  -0.61523  -0.61084
 Alpha  occ. eigenvalues --   -0.60841  -0.60739  -0.60365  -0.60012  -0.59776
 Alpha  occ. eigenvalues --   -0.59598  -0.59124  -0.59007  -0.58356  -0.57959
 Alpha  occ. eigenvalues --   -0.57643  -0.56669  -0.55938  -0.55526  -0.55199
 Alpha  occ. eigenvalues --   -0.55013  -0.53871  -0.53277  -0.52509  -0.51842
 Alpha  occ. eigenvalues --   -0.51663  -0.51218  -0.50976  -0.50664  -0.50167
 Alpha  occ. eigenvalues --   -0.49751  -0.49002  -0.48931  -0.48705  -0.48306
 Alpha  occ. eigenvalues --   -0.48147  -0.47774  -0.47214  -0.45999  -0.45785
 Alpha  occ. eigenvalues --   -0.45369  -0.45165  -0.44447  -0.44161  -0.43675
 Alpha  occ. eigenvalues --   -0.43376  -0.43167  -0.42909  -0.42574  -0.42266
 Alpha  occ. eigenvalues --   -0.41728  -0.41377  -0.40714  -0.40519  -0.37486
 Alpha  occ. eigenvalues --   -0.36799  -0.31206  -0.28723
 Alpha virt. eigenvalues --    0.12915   0.13172   0.15707   0.20403   0.21911
 Alpha virt. eigenvalues --    0.22058   0.22970   0.23225   0.23670   0.24489
 Alpha virt. eigenvalues --    0.25163   0.25717   0.25881   0.26346   0.27068

 Mulliken charges:
               1
     1  C    0.085290
     2  H    0.253383
     3  C   -0.314884
     4  H    0.217848
     5  C   -0.292231
     6  H    0.184125
     7  H    0.185166
     8  C   -0.250403
     9  C    0.799261
    10  O   -0.768427
    11  N   -0.990399
    12  H    0.477969
    13  H    0.417017
    14  C    0.147887
    15  H    0.281470
    16  N   -0.732458
    17  C    0.362493
    18  H    0.223031
    19  C    0.130507
    20  H    0.224553
    21  O   -0.814831
    22  H    0.493192
    23  C    0.101113
    24  H    0.231989
    25  O   -0.823418
    26  H    0.491347
    27  C    0.135202
    28  H    0.216382
    29  O   -0.714776
    30  C   -0.021620
    31  H    0.202545
    32  H    0.202436
    33  O   -0.745551
    34  P    1.623964
    35  O   -0.906953
    36  O   -0.877770
    37  O   -0.867824
    38  P    1.603129
    39  O   -0.885682
    40  O   -0.882004
    41  O   -0.765463
    42  C   -0.018219
    43  H    0.201595
    44  H    0.208009
    45  C    0.136269
    46  H    0.222145
    47  O   -0.719959
    48  C    0.087972
    49  H    0.240452
    50  O   -0.826009
    51  H    0.498391
    52  C    0.128356
    53  H    0.235304
    54  O   -0.817311
    55  H    0.491575
    56  C    0.407971
    57  H    0.236979
    58  N   -0.779193
    59  C    0.320581
    60  H    0.286086
    61  N   -0.632623
    62  C    0.056026
    63  C    0.631487
    64  N   -0.927583
    65  H    0.429885
    66  H    0.422031
    67  N   -0.700308
    68  C    0.280108
    69  H    0.238426
    70  N   -0.677026
    71  C    0.701977
 Sum of Mulliken charges =  -2.00000

 Dipole moment (field-independent basis, Debye):
    X=             16.3746    Y=             31.5279    Z=             -3.6494  Tot=             35.7135
 Quadrupole moment (field-independent basis, Debye-Ang):
   XX=           -418.1506   YY=           -372.1632   ZZ=           -309.5247
   XY=            -61.8386   XZ=            -27.1135   YZ=             20.0670

 Normal termination of Gaussian 09 at Mon Dec 12 13:40:48 2022.
