 Gaussian 09, Revision E.01,
 Gaussian 09:  ES64L-G09RevE.01 30-Nov-2015

 -----------------------
 #HF/6-31G* scrf=smd opt
 -----------------------

 ---------------------
 remark line goes here
 ---------------------
 Symbolic Z-matrix:
 Charge =  0 Multiplicity = 1

 SCF Done:  E(RHF) =  -383.604568252     A.U. after   14 cycles
 SCF Done:  E(RHF) =  -383.628453962     A.U. after   13 cycles
 SCF Done:  E(RHF) =  -383.638342526     A.U. after   12 cycles
 SCF Done:  E(RHF) =  -383.638592539     A.U. after   11 cycles
 SCF Done:  E(RHF) =  -383.638621857     A.U. after   10 cycles
 SCF Done:  E(RHF) =  -383.638647659     A.U. after   11 cycles
 SCF Done:  E(RHF) =  -383.638664980     A.U. after   11 cycles
 SCF Done:  E(RHF) =  -383.638678797     A.U. after   11 cycles
 SCF Done:  E(RHF) =  -383.638680816     A.U. after   10 cycles
 SCF Done:  E(RHF) =  -383.638681580     A.U. after    9 cycles
 SCF Done:  E(RHF) =  -383.638683090     A.U. after   10 cycles
 SCF Done:  E(RHF) =  -383.638683541     A.U. after    9 cycles
 Optimization completed.
    -- Stationary point found.

                         Standard orientation:
 ---------------------------------------------------------------------
 Center     Atomic      Atomic             Coordinates (Angstroms)
 Number     Number       Type             X           Y           Z
 ---------------------------------------------------------------------
      1          6           0       -3.176418   -0.015081    0.787256
      2          6           0       -2.404042    0.037118   -0.534459
      3          1           0       -2.699000   -0.806015   -1.151647
      4          1           0       -2.685146    0.935230   -1.075497
      5          6           0       -0.902184    0.017313   -0.341499
      6          6           0       -0.204847   -1.184339   -0.242238
      7          1           0       -0.737494   -2.115398   -0.332077
      8          6           0        1.163258   -1.214883   -0.034639
      9          1           0        1.690241   -2.149193    0.037111
     10          6           0        1.866063   -0.024584    0.078421
     11          8           0        3.212587   -0.096944    0.281626
     12          1           0        3.582865    0.777156    0.343150
     13          6           0       -0.173511    1.194811   -0.226946
     14          1           0       -0.678553    2.142165   -0.304081
     15          6           0        1.198290    1.184431   -0.018962
     16          1           0        1.745218    2.107584    0.063278
     17          1           0       -2.929251    0.834961    1.416323
     18          1           0       -2.941500   -0.919504    1.340582
     19          1           0       -4.247732   -0.000159    0.608248
 ---------------------------------------------------------------------

 The electronic state is 1-A.
 Alpha  occ. eigenvalues --  -20.58803 -11.29449 -11.22909 -11.22882 -11.22556
 Alpha  occ. eigenvalues --  -11.22337 -11.22214 -11.21583 -11.20465  -1.40139
 Alpha  occ. eigenvalues --   -1.15105  -1.05226  -1.01509  -0.97311  -0.85797
 Alpha  occ. eigenvalues --   -0.83867  -0.78938  -0.72907  -0.66834  -0.64095
 Alpha  occ. eigenvalues --   -0.60711  -0.59201  -0.58737  -0.58122  -0.56353
 Alpha  occ. eigenvalues --   -0.55069  -0.51689  -0.49102  -0.47174  -0.47089
 Alpha  occ. eigenvalues --   -0.46539  -0.33833  -0.30277
 Alpha virt. eigenvalues --    0.14156   0.16264   0.24779   0.25488   0.27628
 Alpha virt. eigenvalues --    0.29378   0.31084   0.32750   0.33296   0.34738
 Alpha virt. eigenvalues --    0.35586   0.37013   0.37146   0.41591   0.44716

 Mulliken charges:
               1
     1  C   -0.492066
     2  C   -0.332314
     3  H    0.180382
     4  H    0.180962
     5  C   -0.006729
     6  C   -0.234508
     7  H    0.232153
     8  C   -0.278541
     9  H    0.236465
    10  C    0.388649
    11  O   -0.817910
    12  H    0.504828
    13  C   -0.237509
    14  H    0.232798
    15  C   -0.300939
    16  H    0.241629
    17  H    0.167001
    18  H    0.167368
    19  H    0.168282
 Sum of Mulliken charges =  -0.00000

 Dipole moment (field-independent basis, Debye):
    X=             -0.7461    Y=              2.0290    Z=             -0.1168  Tot=              2.1650
 Quadrupole moment (field-independent basis, Debye-Ang):
   XX=            -50.8311   YY=            -46.8369   ZZ=            -58.0962
   XY=              7.5027   XZ=              1.5369   YZ=              0.7900

 Normal termination of Gaussian 09 at Mon Dec 12 16:34:48 2022.
