 Gaussian 09, Revision E.01,
 Gaussian 09:  ES64L-G09RevE.01 30-Nov-2015

 ----------------------------------------------------------------------
 #HF/6-31G* scrf=smd SCF=tight Test Pop=MK iop(6/33=2) iop(6/42=6) # io
 p(6/50=1)
 ----------------------------------------------------------------------

 -----------------
 calc RESP charges
 -----------------
 Symbolic Z-matrix:
 Charge = -1 Multiplicity = 1

                         Standard orientation:
 ---------------------------------------------------------------------
 Center     Atomic      Atomic             Coordinates (Angstroms)
 Number     Number       Type             X           Y           Z
 ---------------------------------------------------------------------
      1          8           0       -1.250310    0.276263    1.263769
      2          6           0       -1.529149    0.111179    0.065632
      3          8           0       -2.597935    0.414129   -0.485865
      4          6           0       -0.473275   -0.539209   -0.840972
      5          6           0        0.844795   -0.782557   -0.145335
      6          8           0        1.012943   -1.782959    0.508087
      7          6           0        1.955566    0.225746   -0.321151
      8          1           0       -0.867381   -1.496870   -1.163786
      9          1           0       -0.345689    0.081863   -1.719202
     10          1           0        2.219689    0.217752   -1.376319
     11          1           0        2.813414   -0.125554    0.239018
     12          6           0        1.590803    1.653614    0.096914
     13          1           0        2.438649    2.307196   -0.075621
     14          1           0        1.338066    1.702319    1.149740
     15          1           0        0.753236    2.041187   -0.472291
 ---------------------------------------------------------------------

 SCF Done:  E(RHF) =  -418.160523524     A.U. after   14 cycles

 The electronic state is 1-A.
 Alpha  occ. eigenvalues --  -20.55334 -20.49622 -20.49197 -11.33660 -11.32955
 Alpha  occ. eigenvalues --  -11.22011 -11.21390 -11.21053  -1.39665  -1.38064
 Alpha  occ. eigenvalues --   -1.27363  -1.05798  -0.99583  -0.87878  -0.75406
 Alpha  occ. eigenvalues --   -0.70276  -0.65338  -0.64966  -0.63228  -0.60153
 Alpha  occ. eigenvalues --   -0.59086  -0.58089  -0.54179  -0.53474  -0.50621
 Alpha  occ. eigenvalues --   -0.49381  -0.48155  -0.42367  -0.40669  -0.40079
 Alpha  occ. eigenvalues --   -0.38754
 Alpha virt. eigenvalues --    0.16277   0.23762   0.25103   0.29977   0.30945
 Alpha virt. eigenvalues --    0.31518   0.33714   0.34984   0.37122   0.40030
 Alpha virt. eigenvalues --    0.42603   0.46745   0.49382   0.50773   0.55680

 Mulliken charges:
               1
     1  O   -0.815630
     2  C    0.781683
     3  O   -0.830576
     4  C   -0.546435
     5  C    0.590891
     6  O   -0.655031
     7  C   -0.412516
     8  H    0.228572
     9  H    0.221069
    10  H    0.208839
    11  H    0.196534
    12  C   -0.515433
    13  H    0.183657
    14  H    0.181736
    15  H    0.182639
 Sum of Mulliken charges =  -1.00000

 Dipole moment (field-independent basis, Debye):
    X=              9.6368    Y=              1.3270    Z=             -5.2437  Tot=             11.0511
 Quadrupole moment (field-independent basis, Debye-Ang):
   XX=            -72.3743   YY=            -55.6416   ZZ=            -54.3986
   XY=             10.1093   XZ=             -1.3738   YZ=              2.6253

 ESP charges:
               1
     1  O   -0.892544
     2  C    0.962865
     3  O   -0.915507
     4  C   -0.354402
     5  C    0.629438
     6  O   -0.685674
     7  C    0.045702
     8  H    0.109975
     9  H    0.098974
    10  H    0.024270
    11  H    0.003825
    12  C   -0.199816
    13  H    0.065183
    14  H    0.055229
    15  H    0.052479
 Sum of ESP charges =  -1.00000

 Normal termination of Gaussian 09 at Mon Dec 12 11:44:12 2022.
