 Gaussian 09, Revision E.01,
 Gaussian 09:  ES64L-G09RevE.01 30-Nov-2015

 ----------------------------------------------------------------------
 #HF/6-31G* scrf=smd SCF=tight Test Pop=MK iop(6/33=2) iop(6/42=6) # io
 p(6/50=1)
 ----------------------------------------------------------------------

 -----------------
 calc RESP charges
 -----------------
 Symbolic Z-matrix:
 Charge = -1 Multiplicity = 1

                         Standard orientation:
 ---------------------------------------------------------------------
 Center     Atomic      Atomic             Coordinates (Angstroms)
 Number     Number       Type             X           Y           Z
 ---------------------------------------------------------------------
      1          6           0        3.149714   -0.000100    0.773539
      2          6           0        2.358144    0.000038   -0.538548
      3          1           0        2.648097    0.870302   -1.121614
      4          1           0        2.647899   -0.870246   -1.121682
      5          6           0        0.856226    0.000156   -0.340471
      6          6           0        0.129922    1.184192   -0.228920
      7          1           0        0.647503    2.127032   -0.314287
      8          6           0       -1.236926    1.195204   -0.016551
      9          1           0       -1.760677    2.134524    0.059542
     10          6           0       -1.988524    0.000056    0.101987
     11          8           0       -3.261386   -0.000159    0.299631
     12          6           0        0.129932   -1.184114   -0.228999
     13          1           0        0.647673   -2.126860   -0.314413
     14          6           0       -1.236739   -1.195199   -0.016636
     15          1           0       -1.760593   -2.134463    0.059399
     16          1           0        2.914807   -0.877613    1.369397
     17          1           0        2.915519    0.877756    1.369175
     18          1           0        4.220356   -0.000561    0.585024
 ---------------------------------------------------------------------

 SCF Done:  E(RHF) =  -383.144607787     A.U. after   14 cycles

 The electronic state is 1-A.
 Alpha  occ. eigenvalues --  -20.45493 -11.25646 -11.21200 -11.21196 -11.20864
 Alpha  occ. eigenvalues --  -11.20008 -11.19725 -11.18603 -11.18599  -1.27670
 Alpha  occ. eigenvalues --   -1.11747  -1.02720  -0.98657  -0.93953  -0.83325
 Alpha  occ. eigenvalues --   -0.80200  -0.75390  -0.64200  -0.62784  -0.60521
 Alpha  occ. eigenvalues --   -0.57224  -0.56650  -0.55212  -0.53047  -0.51520
 Alpha  occ. eigenvalues --   -0.49883  -0.48725  -0.45882  -0.45676  -0.41841
 Alpha  occ. eigenvalues --   -0.36725  -0.32117  -0.24562
 Alpha virt. eigenvalues --    0.16244   0.19565   0.25500   0.28413   0.29813
 Alpha virt. eigenvalues --    0.31406   0.33220   0.33630   0.35126   0.36062
 Alpha virt. eigenvalues --    0.37852   0.38881   0.42622   0.45374   0.46820

 Mulliken charges:
               1
     1  C   -0.488667
     2  C   -0.327168
     3  H    0.167740
     4  H    0.167743
     5  C   -0.056546
     6  C   -0.225090
     7  H    0.205871
     8  C   -0.383196
     9  H    0.177919
    10  C    0.493836
    11  O   -0.990709
    12  C   -0.225052
    13  H    0.205885
    14  C   -0.383062
    15  H    0.177947
    16  H    0.161258
    17  H    0.161258
    18  H    0.160032
 Sum of Mulliken charges =  -1.00000

 Dipole moment (field-independent basis, Debye):
    X=             12.9830    Y=             -0.0004    Z=             -1.0931  Tot=             13.0289
 Quadrupole moment (field-independent basis, Debye-Ang):
   XX=            -97.7373   YY=            -53.3862   ZZ=            -59.9996
   XY=             -0.0011   XZ=              2.7864   YZ=              0.0005

 ESP charges:
               1
     1  C   -0.095449
     2  C    0.159845
     3  H   -0.015902
     4  H   -0.015875
     5  C   -0.246305
     6  C   -0.049431
     7  H    0.152618
     8  C   -0.582212
     9  H    0.179788
    10  C    0.758593
    11  O   -1.000396
    12  C   -0.049470
    13  H    0.152608
    14  C   -0.581842
    15  H    0.179736
    16  H    0.020929
    17  H    0.020922
    18  H    0.011845
 Sum of ESP charges =  -1.00000

 Normal termination of Gaussian 09 at Mon Dec 12 17:57:54 2022.
