 Gaussian 09, Revision E.01,
 Gaussian 09:  ES64L-G09RevE.01 30-Nov-2015

 ----------------------------------------------------------------------
 #HF/6-31G* scrf=smd SCF=tight Test Pop=MK iop(6/33=2) iop(6/42=6) # io
 p(6/50=1)
 ----------------------------------------------------------------------

 -----------------
 calc RESP charges
 -----------------
 Symbolic Z-matrix:
 Charge = -1 Multiplicity = 1

                         Standard orientation:
 ---------------------------------------------------------------------
 Center     Atomic      Atomic             Coordinates (Angstroms)
 Number     Number       Type             X           Y           Z
 ---------------------------------------------------------------------
      1          6           0       -6.817120    2.736289   -0.017356
      2          1           0       -6.727573    3.738852    0.347829
      3          6           0       -8.029880    2.154853   -0.278853
      4          1           0       -8.930434    2.710634   -0.111745
      5          6           0       -8.053627    0.863673   -0.773026
      6          1           0       -8.986880    0.390200   -1.005852
      7          6           0       -6.861995    0.169770   -0.966970
      8          6           0       -6.927758   -1.218751   -1.536142
      9          8           0       -7.899615   -1.536219   -2.197861
     10          7           0       -5.920102   -2.047145   -1.295482
     11          1           0       -5.163001   -1.864578   -0.666567
     12          1           0       -5.980116   -2.966338   -1.680630
     13          6           0       -5.679863    0.806382   -0.676262
     14          1           0       -4.719153    0.357325   -0.808617
     15          7           0       -5.676286    2.065265   -0.221581
     16          6           0       -4.394865    2.727392    0.138988
     17          1           0       -4.588199    3.787529    0.090165
     18          6           0       -3.873578    2.318346    1.518385
     19          1           0       -4.077130    1.268142    1.676907
     20          8           0       -4.395297    3.093165    2.556772
     21          1           0       -5.255085    2.759845    2.790040
     22          6           0       -2.364095    2.504922    1.354023
     23          1           0       -1.818154    1.819597    1.982334
     24          8           0       -1.922125    3.789015    1.718597
     25          1           0       -2.335080    4.454366    1.177946
     26          6           0       -2.142804    2.206452   -0.137734
     27          1           0       -1.480614    2.948528   -0.561094
     28          8           0       -3.424523    2.344518   -0.768794
     29          6           0       -1.579755    0.841288   -0.454805
     30          1           0       -1.528635    0.709925   -1.526054
     31          1           0       -0.583354    0.762845   -0.039102
     32          8           0       -2.425321   -0.144064    0.110126
     33         15           0       -2.176832   -1.713180   -0.093727
     34          8           0       -1.662983   -1.990850   -1.454977
     35          8           0       -3.402964   -2.390143    0.392783
     36          8           0       -0.981376   -1.925471    0.981559
     37         15           0        0.023767   -3.184495    1.173291
     38          8           0        0.697329   -2.961765    2.474214
     39          8           0       -0.694434   -4.449684    0.900447
     40          8           0        1.060443   -2.983048   -0.033472
     41          6           0        1.830903   -1.801475   -0.171608
     42          1           0        1.949997   -1.303713    0.780960
     43          1           0        1.328061   -1.133090   -0.856360
     44          6           0        3.181970   -2.190415   -0.743583
     45          1           0        3.037268   -2.783914   -1.636005
     46          8           0        3.862951   -0.986725   -1.094287
     47          6           0        4.092627   -2.922902    0.244506
     48          1           0        3.534178   -3.423847    1.018902
     49          8           0        4.889327   -3.913590   -0.366148
     50          1           0        5.236056   -3.604091   -1.196952
     51          6           0        4.951652   -1.786209    0.799438
     52          1           0        4.410041   -1.272709    1.580691
     53          8           0        6.177821   -2.189684    1.336788
     54          1           0        6.521479   -2.893281    0.794460
     55          6           0        5.090937   -0.875210   -0.420095
     56          1           0        5.900872   -1.214578   -1.048039
     57          7           0        5.350195    0.512207   -0.131612
     58          6           0        4.564572    1.360129    0.607082
     59          1           0        3.678056    1.008240    1.091482
     60          7           0        4.992870    2.568696    0.644004
     61          6           0        6.143396    2.544417   -0.127975
     62          6           0        7.070134    3.528574   -0.486017
     63          7           0        6.949849    4.814428   -0.110584
     64          1           0        6.350647    5.028260    0.656939
     65          1           0        7.753673    5.395940   -0.213600
     66          7           0        8.092840    3.180262   -1.266513
     67          6           0        8.182444    1.918930   -1.669280
     68          1           0        9.025445    1.697054   -2.296599
     69          7           0        7.381922    0.912552   -1.401189
     70          6           0        6.368491    1.280297   -0.619411
 ---------------------------------------------------------------------

 SCF Done:  E(RHF) =  -2921.50918870     A.U. after   14 cycles

 The electronic state is 1-A.
 Alpha  occ. eigenvalues --  -80.07557 -80.07383 -20.59612 -20.58281 -20.58190
 Alpha  occ. eigenvalues --  -20.58091 -20.57877 -20.57843 -20.57485 -20.57264
 Alpha  occ. eigenvalues --  -20.57214 -20.54147 -20.50390 -20.50261 -20.50173
 Alpha  occ. eigenvalues --  -20.50118 -15.69536 -15.62783 -15.58382 -15.57576
 Alpha  occ. eigenvalues --  -15.56590 -15.56146 -15.55433 -11.37651 -11.34812
 Alpha  occ. eigenvalues --  -11.33673 -11.33450 -11.33244 -11.33011 -11.31497
 Alpha  occ. eigenvalues --  -11.31049 -11.30952 -11.29600 -11.29355 -11.29199
 Alpha  occ. eigenvalues --  -11.29046 -11.28550 -11.28459 -11.28395 -11.28323
 Alpha  occ. eigenvalues --  -11.28033 -11.28015 -11.26550 -11.24850  -7.59794
 Alpha  occ. eigenvalues --   -7.59615  -5.49683  -5.49640  -5.49557  -5.49520
 Alpha  occ. eigenvalues --   -5.49442  -5.49383  -1.44619  -1.43799  -1.42796
 Alpha  occ. eigenvalues --   -1.40652  -1.40601  -1.39116  -1.38841  -1.37423
 Alpha  occ. eigenvalues --   -1.37277  -1.36426  -1.36292  -1.35885  -1.31157
 Alpha  occ. eigenvalues --   -1.31050  -1.29214  -1.26515  -1.26329  -1.25338
 Alpha  occ. eigenvalues --   -1.22437  -1.20139  -1.16108  -1.15397  -1.09898
 Alpha  occ. eigenvalues --   -1.06273  -1.05544  -1.04743  -1.04647  -1.02647
 Alpha  occ. eigenvalues --   -0.95847  -0.94316  -0.93844  -0.90147  -0.89553
 Alpha  occ. eigenvalues --   -0.88123  -0.86251  -0.85238  -0.84137  -0.83036
 Alpha  occ. eigenvalues --   -0.82571  -0.81995  -0.79790  -0.78208  -0.77187
 Alpha  occ. eigenvalues --   -0.75736  -0.74685  -0.74300  -0.73971  -0.72965
 Alpha  occ. eigenvalues --   -0.72531  -0.71949  -0.70819  -0.70679  -0.69579
 Alpha  occ. eigenvalues --   -0.68508  -0.68134  -0.67948  -0.67784  -0.66882
 Alpha  occ. eigenvalues --   -0.66480  -0.66199  -0.65654  -0.65274  -0.64924
 Alpha  occ. eigenvalues --   -0.64208  -0.63415  -0.63133  -0.62980  -0.62557
 Alpha  occ. eigenvalues --   -0.62115  -0.61949  -0.61292  -0.61138  -0.60764
 Alpha  occ. eigenvalues --   -0.60142  -0.60011  -0.59350  -0.59203  -0.59066
 Alpha  occ. eigenvalues --   -0.58398  -0.57855  -0.57046  -0.56702  -0.56111
 Alpha  occ. eigenvalues --   -0.55719  -0.55548  -0.55294  -0.54046  -0.53266
 Alpha  occ. eigenvalues --   -0.52621  -0.52300  -0.51079  -0.51071  -0.50218
 Alpha  occ. eigenvalues --   -0.49939  -0.49451  -0.49323  -0.49007  -0.48491
 Alpha  occ. eigenvalues --   -0.48104  -0.47499  -0.46988  -0.46278  -0.45782
 Alpha  occ. eigenvalues --   -0.45476  -0.45219  -0.44912  -0.44528  -0.44270
 Alpha  occ. eigenvalues --   -0.43771  -0.43694  -0.43232  -0.42958  -0.42441
 Alpha  occ. eigenvalues --   -0.42042  -0.41436  -0.41249  -0.40592  -0.38724
 Alpha  occ. eigenvalues --   -0.36886  -0.31261
 Alpha virt. eigenvalues --    0.05783   0.08686   0.13125   0.15649   0.20363
 Alpha virt. eigenvalues --    0.21140   0.21861   0.22399   0.23036   0.23429
 Alpha virt. eigenvalues --    0.23949   0.24319   0.25042   0.25786   0.26263

 Mulliken charges:
               1
     1  C    0.205976
     2  H    0.332305
     3  C   -0.306737
     4  H    0.298322
     5  C   -0.046656
     6  H    0.307719
     7  C   -0.226381
     8  C    0.820078
     9  O   -0.723666
    10  N   -0.968369
    11  H    0.490997
    12  H    0.432580
    13  C    0.227142
    14  H    0.357322
    15  N   -0.672341
    16  C    0.383817
    17  H    0.263223
    18  C    0.132766
    19  H    0.242162
    20  O   -0.803763
    21  H    0.500468
    22  C    0.104126
    23  H    0.243858
    24  O   -0.816342
    25  H    0.493751
    26  C    0.127005
    27  H    0.235150
    28  O   -0.704294
    29  C   -0.020122
    30  H    0.207442
    31  H    0.209889
    32  O   -0.749287
    33  P    1.632012
    34  O   -0.905890
    35  O   -0.878397
    36  O   -0.865432
    37  P    1.602773
    38  O   -0.883231
    39  O   -0.881576
    40  O   -0.763486
    41  C   -0.017873
    42  H    0.200982
    43  H    0.207473
    44  C    0.134602
    45  H    0.222824
    46  O   -0.719282
    47  C    0.089373
    48  H    0.241091
    49  O   -0.825657
    50  H    0.498667
    51  C    0.126978
    52  H    0.236002
    53  O   -0.816991
    54  H    0.491664
    55  C    0.406897
    56  H    0.237211
    57  N   -0.779135
    58  C    0.320694
    59  H    0.286160
    60  N   -0.632183
    61  C    0.056073
    62  C    0.631952
    63  N   -0.927684
    64  H    0.430004
    65  H    0.422247
    66  N   -0.700267
    67  C    0.280198
    68  H    0.238585
    69  N   -0.676983
    70  C    0.701467
 Sum of Mulliken charges =  -1.00000

 Dipole moment (field-independent basis, Debye):
    X=            -13.9721    Y=             36.6594    Z=             -4.2767  Tot=             39.4642
 Quadrupole moment (field-independent basis, Debye-Ang):
   XX=           -189.5993   YY=           -335.9444   ZZ=           -312.5920
   XY=           -104.6276   XZ=            -28.3047   YZ=             25.4583

 ESP charges:
               1
     1  C    0.032280
     2  H    0.204345
     3  C   -0.245857
     4  H    0.218806
     5  C    0.090789
     6  H    0.174571
     7  C   -0.206169
     8  C    0.958574
     9  O   -0.764253
    10  N   -1.077118
    11  H    0.494125
    12  H    0.478539
    13  C   -0.002213
    14  H    0.264205
    15  N    0.178400
    16  C    0.131060
    17  H    0.147362
    18  C    0.324020
    19  H    0.021099
    20  O   -0.806388
    21  H    0.512362
    22  C    0.347116
    23  H    0.087427
    24  O   -0.816751
    25  H    0.511513
    26  C    0.328105
    27  H    0.049451
    28  O   -0.554182
    29  C   -0.051593
    30  H    0.148583
    31  H    0.069750
    32  O   -0.553370
    33  P    1.322299
    34  O   -0.869555
    35  O   -0.882774
    36  O   -0.574389
    37  P    1.392989
    38  O   -0.915168
    39  O   -0.894977
    40  O   -0.619691
    41  C    0.164740
    42  H    0.075563
    43  H    0.109085
    44  C    0.062468
    45  H    0.137121
    46  O   -0.597298
    47  C    0.277897
    48  H    0.121621
    49  O   -0.785436
    50  H    0.492266
    51  C    0.113171
    52  H    0.116951
    53  O   -0.765612
    54  H    0.488075
    55  C    0.538250
    56  H    0.073643
    57  N   -0.324980
    58  C    0.326177
    59  H    0.152627
    60  N   -0.673951
    61  C   -0.061545
    62  C    0.857429
    63  N   -1.002347
    64  H    0.444663
    65  H    0.456611
    66  N   -0.920134
    67  C    0.705536
    68  H    0.061362
    69  N   -0.895734
    70  C    0.598453
 Sum of ESP charges =  -1.00000

 1\1\NSC-N117\SP\RHF\6-31G(d)\C21H26N7O14P2(1-)\X_GABOA\13-Dec-2022\0\\
 #HF/6-31G* scrf=smd SCF=tight Test Pop=MK iop(6/33=2) iop(6/42=6) # io
 p(6/50=1)\\calc RESP charges\\-1,1\C,0,-6.81712,2.736289,-0.017356\H,0
 ,-6.727573,3.738852,0.347829\C,0,-8.02988,2.154853,-0.278853\H,0,-8.93
 0434,2.710634,-0.111745\C,0,-8.053627,0.863673,-0.773026\H,0,-8.98688,
 0.3902,-1.005852\C,0,-6.861995,0.16977,-0.96697\C,0,-6.927758,-1.21875
 1,-1.536142\O,0,-7.899615,-1.536219,-2.197861\N,0,-5.920102,-2.047145,
 -1.295482\H,0,-5.163001,-1.864578,-0.666567\H,0,-5.980116,-2.966338,-1

 Normal termination of Gaussian 09 at Tue Dec 13 22:09:41 2022.
