 Gaussian 09, Revision E.01,
 Gaussian 09:  ES64L-G09RevE.01 30-Nov-2015

 ----------------------------------------------------------------------
 #HF/6-31G* scrf=smd SCF=tight Test Pop=MK iop(6/33=2) iop(6/42=6) # io
 p(6/50=1)
 ----------------------------------------------------------------------

 ------------
 RESP charges
 ------------
 Symbolic Z-matrix:
 Charge = -2 Multiplicity = 1

                         Standard orientation:
 ---------------------------------------------------------------------
 Center     Atomic      Atomic             Coordinates (Angstroms)
 Number     Number       Type             X           Y           Z
 ---------------------------------------------------------------------
      1         15           0       -2.086366   -0.034102   -0.018098
      2          8           0       -2.272358   -0.800737    1.289495
      3          8           0       -2.876914    1.262195   -0.117230
      4          8           0       -2.139638   -0.916213   -1.261772
      5          8           0       -0.500543    0.540091    0.037379
      6          6           0        0.498598   -0.441224    0.137393
      7          1           0        0.405324   -1.200300   -0.650762
      8          1           0        0.456288   -0.967801    1.101044
      9          6           0        1.861537    0.180179    0.027467
     10          8           0        2.049670    1.377200    0.010964
     11          6           0        3.026062   -0.775288   -0.086494
     12          8           0        4.259995   -0.101446    0.027126
     13          1           0        4.079409    0.827218   -0.174673
     14          1           0        2.946237   -1.536782    0.694008
     15          1           0        2.929350   -1.281536   -1.056039
 ---------------------------------------------------------------------

 SCF Done:  E(RHF) =  -906.771360625     A.U. after   13 cycles

 The electronic state is 1-A.
 Alpha  occ. eigenvalues --  -80.02133 -20.57182 -20.56823 -20.55077 -20.46567
 Alpha  occ. eigenvalues --  -20.46480 -20.46461 -11.34250 -11.28219 -11.27983
 Alpha  occ. eigenvalues --   -7.54212  -5.44144  -5.44006  -5.43982  -1.41685
 Alpha  occ. eigenvalues --   -1.36747  -1.35731  -1.27691  -1.21178  -1.20940
 Alpha  occ. eigenvalues --   -1.02419  -0.92366  -0.76517  -0.72940  -0.69418
 Alpha  occ. eigenvalues --   -0.66783  -0.66020  -0.62907  -0.61333  -0.59771
 Alpha  occ. eigenvalues --   -0.55522  -0.54893  -0.54391  -0.52086  -0.51507
 Alpha  occ. eigenvalues --   -0.46172  -0.44985  -0.44859  -0.44567  -0.44395
 Alpha  occ. eigenvalues --   -0.42011  -0.40432  -0.39684  -0.37268
 Alpha virt. eigenvalues --    0.15565   0.24642   0.26728   0.28886   0.32778
 Alpha virt. eigenvalues --    0.33331   0.33369   0.34509   0.37318   0.39822
 Alpha virt. eigenvalues --    0.41270   0.44287   0.48080   0.52018   0.53685

 Mulliken charges:
               1
     1  P    1.466135
     2  O   -0.992359
     3  O   -0.969352
     4  O   -0.990234
     5  O   -0.790619
     6  C   -0.067737
     7  H    0.208889
     8  H    0.212998
     9  C    0.512956
    10  O   -0.641287
    11  C   -0.061310
    12  O   -0.816752
    13  H    0.492283
    14  H    0.221513
    15  H    0.214874
 Sum of Mulliken charges =  -2.00000

 Dipole moment (field-independent basis, Debye):
    X=             20.1812    Y=             -3.5355    Z=             -0.1553  Tot=             20.4891
 Quadrupole moment (field-independent basis, Debye-Ang):
   XX=           -140.3446   YY=            -81.8169   ZZ=            -78.5715
   XY=             -3.0339   XZ=             -2.4196   YZ=             -0.4169

 ESP charges:
               1
     1  P    1.359769
     2  O   -0.986528
     3  O   -0.993388
     4  O   -0.981533
     5  O   -0.622729
     6  C    0.158713
     7  H    0.034481
     8  H    0.050505
     9  C    0.609282
    10  O   -0.647679
    11  C    0.237602
    12  O   -0.752688
    13  H    0.452507
    14  H    0.042173
    15  H    0.039512
 Sum of ESP charges =  -2.00000

 Normal termination of Gaussian 09 at Tue Feb 28 15:55:42 2023.
