 Gaussian 09, Revision E.01,
 Gaussian 09:  ES64L-G09RevE.01 30-Nov-2015

 ----------------------------
 #M062X/6-311G** scrf=smd opt
 ----------------------------

 ---------------
 SUB in PS state
 ---------------
 Symbolic Z-matrix:
 Charge = -2 Multiplicity = 1

 SCF Done:  E(RM062X) =  -910.262310972     A.U. after   14 cycles
 SCF Done:  E(RM062X) =  -910.332290126     A.U. after   12 cycles
 SCF Done:  E(RM062X) =  -910.355809400     A.U. after   13 cycles
 SCF Done:  E(RM062X) =  -910.358819094     A.U. after   12 cycles
 SCF Done:  E(RM062X) =  -910.360231924     A.U. after   12 cycles
 SCF Done:  E(RM062X) =  -910.361647814     A.U. after   12 cycles
 SCF Done:  E(RM062X) =  -910.362729947     A.U. after   12 cycles
 SCF Done:  E(RM062X) =  -910.364241752     A.U. after   14 cycles
 SCF Done:  E(RM062X) =  -910.365604772     A.U. after   14 cycles
 SCF Done:  E(RM062X) =  -910.366327504     A.U. after   12 cycles
 SCF Done:  E(RM062X) =  -910.367057302     A.U. after   11 cycles
 SCF Done:  E(RM062X) =  -910.367088731     A.U. after   11 cycles
 SCF Done:  E(RM062X) =  -910.367101658     A.U. after   11 cycles
 SCF Done:  E(RM062X) =  -910.367109314     A.U. after   10 cycles
 SCF Done:  E(RM062X) =  -910.367116784     A.U. after   10 cycles
 SCF Done:  E(RM062X) =  -910.367120135     A.U. after   10 cycles
 SCF Done:  E(RM062X) =  -910.367123413     A.U. after    9 cycles
 SCF Done:  E(RM062X) =  -910.367124125     A.U. after    8 cycles
 SCF Done:  E(RM062X) =  -910.367124641     A.U. after    8 cycles
 SCF Done:  E(RM062X) =  -910.367124836     A.U. after    7 cycles
 Optimization completed.
    -- Stationary point found.

                         Standard orientation:
 ---------------------------------------------------------------------
 Center     Atomic      Atomic             Coordinates (Angstroms)
 Number     Number       Type             X           Y           Z
 ---------------------------------------------------------------------
      1         15           0       -2.086366   -0.034102   -0.018098
      2          8           0       -2.272358   -0.800737    1.289495
      3          8           0       -2.876914    1.262195   -0.117230
      4          8           0       -2.139638   -0.916213   -1.261772
      5          8           0       -0.500543    0.540091    0.037379
      6          6           0        0.498598   -0.441224    0.137393
      7          1           0        0.405324   -1.200300   -0.650762
      8          1           0        0.456288   -0.967801    1.101044
      9          6           0        1.861537    0.180179    0.027467
     10          8           0        2.049670    1.377200    0.010964
     11          6           0        3.026062   -0.775288   -0.086494
     12          8           0        4.259995   -0.101446    0.027126
     13          1           0        4.079409    0.827218   -0.174673
     14          1           0        2.946237   -1.536782    0.694008
     15          1           0        2.929350   -1.281536   -1.056039
 ---------------------------------------------------------------------

 The electronic state is 1-A.
 Alpha  occ. eigenvalues --  -78.07816 -19.62766 -19.61550 -19.60509 -19.52454
 Alpha  occ. eigenvalues --  -19.52338 -19.52322 -10.63627 -10.58607 -10.58504
 Alpha  occ. eigenvalues --   -6.88741  -5.00704  -5.00482  -5.00463  -1.19422
 Alpha  occ. eigenvalues --   -1.15021  -1.13911  -1.06907  -1.00597  -1.00342
 Alpha  occ. eigenvalues --   -0.85531  -0.77087  -0.64341  -0.61174  -0.58186
 Alpha  occ. eigenvalues --   -0.56353  -0.55497  -0.52234  -0.51007  -0.49935
 Alpha  occ. eigenvalues --   -0.45961  -0.45064  -0.44418  -0.43604  -0.41993
 Alpha  occ. eigenvalues --   -0.36775  -0.36093  -0.35826  -0.35676  -0.35422
 Alpha  occ. eigenvalues --   -0.33383  -0.31872  -0.30977  -0.28771
 Alpha virt. eigenvalues --    0.02562   0.09243   0.11371   0.14514   0.14771
 Alpha virt. eigenvalues --    0.16869   0.17006   0.17662   0.19591   0.21731
 Alpha virt. eigenvalues --    0.26086   0.26894   0.29986   0.31265   0.32190

 Mulliken charges:
               1
     1  P    1.196491
     2  O   -0.913030
     3  O   -0.893383
     4  O   -0.911404
     5  O   -0.637819
     6  C   -0.068621
     7  H    0.169853
     8  H    0.180214
     9  C    0.198807
    10  O   -0.421607
    11  C   -0.056710
    12  O   -0.507613
    13  H    0.299141
    14  H    0.182808
    15  H    0.182871
 Sum of Mulliken charges =  -2.00000

 Dipole moment (field-independent basis, Debye):
    X=             20.1914    Y=             -3.1176    Z=             -0.1376  Tot=             20.4311
 Quadrupole moment (field-independent basis, Debye-Ang):
   XX=           -139.8824   YY=            -82.3181   ZZ=            -79.6101
   XY=             -2.4375   XZ=             -2.3343   YZ=             -0.3955

 Normal termination of Gaussian 09 at Tue Feb 28 14:56:44 2023.
